Program Version,EnergyPlus, Version 8.5.0-c87e61b44b, YMD=2017.03.02 15:28
1,5,Environment Title[],Latitude[deg],Longitude[deg],Time Zone[],Elevation[m]
2,6,Day of Simulation[],Month[],Day of Month[],DST Indicator[1=yes 0=no],Hour[],StartMinute[],EndMinute[],DayType
3,3,Cumulative Day of Simulation[],Month[],Day of Month[],DST Indicator[1=yes 0=no],DayType  ! When Daily Meters Requested
4,2,Cumulative Days of Simulation[],Month[]  ! When Monthly Meters Requested
5,1,Cumulative Days of Simulation[] ! When Run Period Meters Requested
60,9,Electricity:Facility [J] !Monthly  [Value,Min,Day,Hour,Minute,Max,Day,Hour,Minute]
1747,9,ElectricityNet:Facility [J] !Monthly  [Value,Min,Day,Hour,Minute,Max,Day,Hour,Minute]
703,9,Gas:Facility [J] !Monthly  [Value,Min,Day,Hour,Minute,Max,Day,Hour,Minute]
End of Data Dictionary
1,CHICAGO OHARE INTL AP ANN HTG 99.6% CONDNS DB,  41.98, -87.92,  -6.00, 201.00
4,1, 1
60,9093596138.13005,7456382.05117707,21,20,30,190475779.718936,21, 8,15
703,8187973234.32786,1149300.,21,19,45,117185776.024561,21, 5,45
1747,9093596138.13005,7456382.05117707,21,20,30,190475779.718936,21, 8,15
1,CHICAGO OHARE INTL AP ANN CLG .4% CONDNS DB=>MWB,  41.98, -87.92,  -6.00, 201.00
4,1, 7
60,15548435984.3947,88906103.7156992,21, 6,60,197093536.929436,21, 8,45
703,239736269.304583,1149300.,21, 1,15,6128109.54638212,21,14,60
1747,15548435984.3947,88906103.7156992,21, 6,60,197093536.929436,21, 8,45
1,Chicago Ohare Intl Ap IL USA TMY3 WMO#=725300,  41.98, -87.92,  -6.00, 201.00
4,31, 1
60,168030156661.386,11944001.232802, 1,10,45,194638137.273394, 2, 8,15
703,92989712092.5237,1149300., 1, 1,45,121677842.670054, 8, 6,60
1747,168030156661.386,11944001.232802, 1,12,60,194638137.273394, 2, 8,15
4,59, 2
60,136661048293.004,11944001.232802, 5, 9,60,190462715.115562, 6, 8,15
703,65768718286.5502,1149300., 1, 1,15,123368714.151664, 6, 5,60
1747,136661048293.004,11944001.232802, 5,14,30,190462715.115562, 6, 8,15
4,90, 3
60,133026577124.646,10227252.9885482,26,18,15,147693736.941926, 6, 8,15
703,30521831077.7638,1149300., 1, 1,15,59500006.9883001,18, 6,30
1747,133026577124.646,10227252.9885482,26,18,15,147693736.941926, 6, 8,15
4,120, 4
60,122553204395.848,10133933.5607716,30,18,15,133115180.474237,18,13,60
703,16058712623.1653,1149300., 1, 1,15,48292365.5112113, 5, 6,15
1747,122553204395.848,10133933.5607716,30,18,15,133115180.474237,18,13,60
4,151, 5
60,128144439907.205,10133934.3192879, 7,18,15,122032141.735795,30,13,60
703,7049530519.10982,1149300., 1, 1,15,19010076.2920764, 9, 6,15
1747,128144439907.205,10133934.3192879, 7,18,15,122032141.735795,30,13,60
4,181, 6
60,156211447247.226,10133933.5607716,18,18,15,151209274.875981, 8,13,60
703,6403517051.27571,1149300., 1, 1,15,10123776.2773315, 5,12,45
1747,156211447247.227,10133933.5607716,18,18,15,151209274.875981, 8,13,60
4,212, 7
60,174172275850.137,10175678.7629716, 1,19,15,160444315.522735,17,16,15
703,5938970262.06796,1149300., 1, 1,15,8603699.65543785, 3,12,45
1747,174172275850.137,10175678.7629716, 1,19,15,160444315.522735,17,16,15
4,243, 8
60,170390652313.22,10129085.6892376, 6,18,15,153552997.586363, 4, 8,60
703,6268318224.9197,1149300., 1, 1,15,7627690.31191234,31,12,60
1747,170390652313.22,10129085.6892376, 6,18,15,153552997.586363, 4, 8,60
4,273, 9
60,137080386282.392,10292162.7067726,10,18,15,132702677.35442, 5,16,15
703,5907109290.03431,1149300., 1, 1,15,8594115.44804241,25,12,60
1747,137080386282.392,10292162.7067726,10,18,15,132702677.35442, 5,16,15
4,304,10
60,117591088910.863,10418294.0595261, 1,18,15,101419518.272988, 2,13,60
703,8597692036.52378,1149300., 1, 1,15,28861772.4522132,17, 6,15
1747,117591088910.863,10418294.0595261, 1,18,15,101419518.272988, 2,13,60
4,334,11
60,135286966499.006,11944001.232802, 5,10,30,172204446.187587,27, 8,15
703,35053907937.0311,1149300., 1, 1,15,80462316.6979125,28, 7,60
1747,135286966499.006,11944001.232802,11, 9,60,172204446.187587,27, 8,15
4,365,12
60,157668063085.094,11944001.232802, 3,12,15,197951364.230328,18, 8,15
703,79340595016.2676,1149300., 1, 1,15,101483084.582404,20, 6,60
1747,157668063085.094,11944001.232802,10,10,60,197951364.230328,18, 8,15
End of Data
 Number of Records Written=          42
