Program Version,EnergyPlus, Version 8.5.0-c87e61b44b, YMD=2016.11.15 18:25
1,5,Environment Title[],Latitude[deg],Longitude[deg],Time Zone[],Elevation[m]
2,6,Day of Simulation[],Month[],Day of Month[],DST Indicator[1=yes 0=no],Hour[],StartMinute[],EndMinute[],DayType
3,3,Cumulative Day of Simulation[],Month[],Day of Month[],DST Indicator[1=yes 0=no],DayType  ! When Daily Meters Requested
4,2,Cumulative Days of Simulation[],Month[]  ! When Monthly Meters Requested
5,1,Cumulative Days of Simulation[] ! When Run Period Meters Requested
58,1,Electricity:Facility [J] !Hourly
1745,1,ElectricityNet:Facility [J] !Hourly
701,1,Gas:Facility [J] !Hourly
88,1,InteriorLights:Electricity [J] !Hourly
443,1,InteriorEquipment:Electricity [J] !Hourly
End of Data Dictionary
1,CHICAGO OHARE INTL AP ANN HTG 99.6% CONDNS DB,  41.98, -87.92,  -6.00, 201.00
2,1, 1,21, 0, 1, 0.00,60.00,WinterDesignDay
58,102308564.996141
88,0.0
443,0.0
701,295173724.579121
1745,102308564.996141
2,1, 1,21, 0, 2, 0.00,60.00,WinterDesignDay
58,110562753.21999
88,0.0
443,0.0
701,311974383.51169
1745,110562753.21999
2,1, 1,21, 0, 3, 0.00,60.00,WinterDesignDay
58,101764466.699223
88,0.0
443,0.0
701,269801130.54483
1745,101764466.699223
2,1, 1,21, 0, 4, 0.00,60.00,WinterDesignDay
58,145576193.312027
88,0.0
443,0.0
701,350845664.136718
1745,145576193.312027
2,1, 1,21, 0, 5, 0.00,60.00,WinterDesignDay
58,138195647.494963
88,0.0
443,0.0
701,316310836.407399
1745,138195647.494963
2,1, 1,21, 0, 6, 0.00,60.00,WinterDesignDay
58,235469365.401042
88,0.0
443,0.0
701,264372050.580306
1745,235469365.401042
2,1, 1,21, 0, 7, 0.00,60.00,WinterDesignDay
58,588557885.57592
88,0.0
443,0.0
701,431381060.966245
1745,588557885.57592
2,1, 1,21, 0, 8, 0.00,60.00,WinterDesignDay
58,683978437.241995
88,0.0
443,0.0
701,407303255.180216
1745,683978437.241995
2,1, 1,21, 0, 9, 0.00,60.00,WinterDesignDay
58,589754914.817157
88,0.0
443,0.0
701,402699322.783051
1745,589754914.817157
2,1, 1,21, 0,10, 0.00,60.00,WinterDesignDay
58,559773526.419826
88,0.0
443,0.0
701,401319772.773315
1745,559773526.419826
2,1, 1,21, 0,11, 0.00,60.00,WinterDesignDay
58,541581241.387038
88,0.0
443,0.0
701,404802889.740629
1745,541581241.387038
2,1, 1,21, 0,12, 0.00,60.00,WinterDesignDay
58,527461901.088398
88,0.0
443,0.0
701,408763196.326891
1745,527461901.088398
2,1, 1,21, 0,13, 0.00,60.00,WinterDesignDay
58,515765655.374252
88,0.0
443,0.0
701,404146952.670927
1745,515765655.374252
2,1, 1,21, 0,14, 0.00,60.00,WinterDesignDay
58,505558158.185994
88,0.0
443,0.0
701,408122956.180505
1745,505558158.185994
2,1, 1,21, 0,15, 0.00,60.00,WinterDesignDay
58,496663116.380887
88,0.0
443,0.0
701,403617461.876048
1745,496663116.380887
2,1, 1,21, 0,16, 0.00,60.00,WinterDesignDay
58,488762959.408018
88,0.0
443,0.0
701,403377381.695037
1745,488762959.408018
2,1, 1,21, 0,17, 0.00,60.00,WinterDesignDay
58,488866462.027585
88,0.0
443,0.0
701,403199024.258191
1745,488866462.027585
2,1, 1,21, 0,18, 0.00,60.00,WinterDesignDay
58,504638867.39168
88,0.0
443,0.0
701,398862271.483297
1745,504638867.39168
2,1, 1,21, 0,19, 0.00,60.00,WinterDesignDay
58,420848814.395352
88,0.0
443,0.0
701,291444296.35471
1745,420848814.395352
2,1, 1,21, 0,20, 0.00,60.00,WinterDesignDay
58,446282180.317606
88,0.0
443,0.0
701,307432599.768507
1745,446282180.317606
2,1, 1,21, 0,21, 0.00,60.00,WinterDesignDay
58,312829004.382907
88,0.0
443,0.0
701,207371669.840065
1745,312829004.382907
2,1, 1,21, 0,22, 0.00,60.00,WinterDesignDay
58,457986133.703862
88,0.0
443,0.0
701,309408469.359478
1745,457986133.703862
2,1, 1,21, 0,23, 0.00,60.00,WinterDesignDay
58,49159663.9439956
88,0.0
443,0.0
701,190647954.672642
1745,49159663.9439956
2,1, 1,21, 0,24, 0.00,60.00,WinterDesignDay
58,81250224.9641926
88,0.0
443,0.0
701,195594908.638041
1745,81250224.9641926
1,CHICAGO OHARE INTL AP ANN CLG .4% CONDNS DB=>MWB,  41.98, -87.92,  -6.00, 201.00
2,1, 7,21, 0, 1, 0.00,60.00,SummerDesignDay
58,527653334.858059
88,158309273.450227
443,224813060.552967
701,4597200.
1745,527653334.858059
2,1, 7,21, 0, 2, 0.00,60.00,SummerDesignDay
58,534179721.358126
88,158309273.450227
443,224813060.552967
701,4597200.
1745,534179721.358126
2,1, 7,21, 0, 3, 0.00,60.00,SummerDesignDay
58,493406488.732658
88,158309273.450227
443,224813060.552967
701,4597200.
1745,493406488.732658
2,1, 7,21, 0, 4, 0.00,60.00,SummerDesignDay
58,538002251.10871
88,158309273.450227
443,224813060.552967
701,4597200.
1745,538002251.10871
2,1, 7,21, 0, 5, 0.00,60.00,SummerDesignDay
58,516352595.464468
88,152657658.143221
443,224813060.552967
701,4597200.
1745,516352595.464468
2,1, 7,21, 0, 6, 0.00,60.00,SummerDesignDay
58,442819490.768457
88,126975466.910694
443,224813060.552967
701,4597200.
1745,442819490.768457
2,1, 7,21, 0, 7, 0.00,60.00,SummerDesignDay
58,659930129.21876
88,124547812.705664
443,224813060.552967
701,4597200.
1745,659930129.21876
2,1, 7,21, 0, 8, 0.00,60.00,SummerDesignDay
58,770864605.822825
88,124547812.705664
443,224813060.552967
701,4597200.
1745,770864605.822825
2,1, 7,21, 0, 9, 0.00,60.00,SummerDesignDay
58,726247637.51431
88,124547812.705664
443,224813060.552967
701,4597200.
1745,726247637.51431
2,1, 7,21, 0,10, 0.00,60.00,SummerDesignDay
58,727664866.912054
88,124547812.705664
443,224813060.552967
701,8989389.55894229
1745,727664866.912054
2,1, 7,21, 0,11, 0.00,60.00,SummerDesignDay
58,730319300.685943
88,124547812.705664
443,224813060.552967
701,17864289.5849897
1745,730319300.685943
2,1, 7,21, 0,12, 0.00,60.00,SummerDesignDay
58,734637457.330851
88,124547812.705664
443,224813060.552967
701,18195641.8768984
1745,734637457.330851
2,1, 7,21, 0,13, 0.00,60.00,SummerDesignDay
58,749074288.879176
88,124547812.705664
443,224813060.552967
701,23397115.624762
1745,749074288.879176
2,1, 7,21, 0,14, 0.00,60.00,SummerDesignDay
58,768721618.961695
88,124547812.705664
443,224813060.552967
701,23636609.1666899
1745,768721618.961695
2,1, 7,21, 0,15, 0.00,60.00,SummerDesignDay
58,775346161.1274
88,124547812.705664
443,224813060.552967
701,17547825.0877984
1745,775346161.1274
2,1, 7,21, 0,16, 0.00,60.00,SummerDesignDay
58,762357890.962327
88,124547812.705664
443,224813060.552967
701,16123335.3888966
1745,762357890.962327
2,1, 7,21, 0,17, 0.00,60.00,SummerDesignDay
58,739497020.722212
88,124547812.705664
443,224813060.552967
701,19612546.3907842
1745,739497020.722212
2,1, 7,21, 0,18, 0.00,60.00,SummerDesignDay
58,708408706.582924
88,124596299.006167
443,224813060.552967
701,13093652.2493404
1745,708408706.582924
2,1, 7,21, 0,19, 0.00,60.00,SummerDesignDay
58,666457244.399554
88,131783802.309129
443,224813060.552967
701,8766095.43540163
1745,666457244.399554
2,1, 7,21, 0,20, 0.00,60.00,SummerDesignDay
58,667813391.268124
88,158309273.450227
443,224813060.552967
701,8689693.33386656
1745,667813391.268124
2,1, 7,21, 0,21, 0.00,60.00,SummerDesignDay
58,654965375.523691
88,158309273.450227
443,224813060.552967
701,4597200.
1745,654965375.52369
2,1, 7,21, 0,22, 0.00,60.00,SummerDesignDay
58,641658110.803649
88,158309273.450227
443,224813060.552967
701,8653675.60621295
1745,641658110.803649
2,1, 7,21, 0,23, 0.00,60.00,SummerDesignDay
58,502273860.438618
88,158309273.450227
443,224813060.552967
701,4597200.
1745,502273860.438618
2,1, 7,21, 0,24, 0.00,60.00,SummerDesignDay
58,509784434.950137
88,158309273.450227
443,224813060.552967
701,4597200.
1745,509784434.950137
1,Chicago Ohare Intl Ap IL USA TMY3 WMO#=725300,  41.98, -87.92,  -6.00, 201.00
2,1, 1, 1, 0, 1, 0.00,60.00,Holiday
58,119779375.094487
88,7915463.67251137
443,33399901.5013581
701,140903252.567723
1745,119779375.094487
2,1, 1, 1, 0, 2, 0.00,60.00,Holiday
58,118884217.660971
88,7915463.67251137
443,33399901.5013581
701,190607490.2058
1745,118884217.660971
2,1, 1, 1, 0, 3, 0.00,60.00,Holiday
58,105542245.376747
88,7915463.67251137
443,33399901.5013581
701,126899630.50496
1745,105542245.376747
2,1, 1, 1, 0, 4, 0.00,60.00,Holiday
58,135020422.556643
88,7915463.67251137
443,33399901.5013581
701,187078055.95417
1745,135020422.556643
2,1, 1, 1, 0, 5, 0.00,60.00,Holiday
58,121337185.85044
88,7915463.67251137
443,33399901.5013581
701,184577524.999303
1745,121337185.85044
2,1, 1, 1, 0, 6, 0.00,60.00,Holiday
58,106288726.449505
88,7915463.67251137
443,33399901.5013581
701,124072188.631056
1745,106288726.449505
2,1, 1, 1, 0, 7, 0.00,60.00,Holiday
58,152488858.290179
88,6825706.96067657
443,41385398.9087341
701,184266923.521662
1745,152488858.290179
2,1, 1, 1, 0, 8, 0.00,60.00,Holiday
58,118076154.154408
88,6450292.45482373
443,41385398.9087341
701,181439593.489682
1745,118076154.154408
2,1, 1, 1, 0, 9, 0.00,60.00,Holiday
58,78464366.1765528
88,5495401.4749546
443,41385398.9087341
701,118461075.711301
1745,78464366.1765528
2,1, 1, 1, 0,10, 0.00,60.00,Holiday
58,86736120.4454386
88,5375430.95117257
443,41385398.9087341
701,162148432.256222
1745,86736120.4454386
2,1, 1, 1, 0,11, 0.00,60.00,Holiday
58,80437607.8629275
88,5370038.36600498
443,41385398.9087341
701,145387292.360328
1745,80437607.8629275
2,1, 1, 1, 0,12, 0.00,60.00,Holiday
58,65163313.1033144
88,5370038.36600498
443,41385398.9087341
701,89333021.1035075
1745,65163313.1033143
2,1, 1, 1, 0,13, 0.00,60.00,Holiday
58,74370091.6015376
88,5370038.36600498
443,41385398.9087341
701,121869915.050422
1745,74370091.6015376
2,1, 1, 1, 0,14, 0.00,60.00,Holiday
58,60734398.0422293
88,5379944.88617218
443,41385398.9087341
701,78562666.3768466
1745,60734398.0422293
2,1, 1, 1, 0,15, 0.00,60.00,Holiday
58,57847125.3377998
88,5450050.27604252
443,41385398.9087341
701,64587348.6900766
1745,57847125.3377998
2,1, 1, 1, 0,16, 0.00,60.00,Holiday
58,63616122.4961408
88,5891680.40722578
443,41385398.9087341
701,94006776.9388883
1745,63616122.4961407
2,1, 1, 1, 0,17, 0.00,60.00,Holiday
58,82708790.233543
88,6825706.96067657
443,41385398.9087341
701,60193754.7319557
1745,82708790.233543
2,1, 1, 1, 0,18, 0.00,60.00,Holiday
58,90424367.8448998
88,6825706.96067657
443,41385398.9087341
701,66856541.7407
1745,90424367.8448998
2,1, 1, 1, 0,19, 0.00,60.00,Holiday
58,99081904.1027771
88,7915463.67251137
443,33399901.5013581
701,101631298.865992
1745,99081904.1027771
2,1, 1, 1, 0,20, 0.00,60.00,Holiday
58,106291962.174019
88,7915463.67251137
443,33399901.5013581
701,117732397.14771
1745,106291962.174019
2,1, 1, 1, 0,21, 0.00,60.00,Holiday
58,97265198.5002034
88,7915463.67251137
443,33399901.5013581
701,98033011.7210773
1745,97265198.5002034
2,1, 1, 1, 0,22, 0.00,60.00,Holiday
58,104050368.017199
88,7915463.67251137
443,33399901.5013581
701,99440176.8608561
1745,104050368.017199
2,1, 1, 1, 0,23, 0.00,60.00,Holiday
58,112881617.930383
88,7915463.67251137
443,33399901.5013581
701,118194617.550373
1745,112881617.930383
2,1, 1, 1, 0,24, 0.00,60.00,Holiday
58,105954739.643156
88,7915463.67251137
443,33399901.5013581
701,99723861.313964
1745,105954739.643156
2,2, 1, 2, 0, 1, 0.00,60.00,Monday
58,112771317.65506
88,7915463.67251137
443,44533202.0018108
701,109922547.822253
1745,112771317.65506
2,2, 1, 2, 0, 2, 0.00,60.00,Monday
58,123639080.582252
88,7915463.67251137
443,44533202.0018108
701,131360943.075403
1745,123639080.582252
2,2, 1, 2, 0, 3, 0.00,60.00,Monday
58,114340909.783375
88,7915463.67251137
443,44533202.0018108
701,108847755.13395
1745,114340909.783375
2,2, 1, 2, 0, 4, 0.00,60.00,Monday
58,119213347.138011
88,7915463.67251137
443,44533202.0018108
701,110934504.212358
1745,119213347.138011
2,2, 1, 2, 0, 5, 0.00,60.00,Monday
58,124855839.649614
88,7915463.67251137
443,44533202.0018108
701,121939990.545915
1745,124855839.649614
2,2, 1, 2, 0, 6, 0.00,60.00,Monday
58,259670689.3601
88,15830927.3450227
443,44533202.0018108
701,136789572.129236
1745,259670689.3601
2,2, 1, 2, 0, 7, 0.00,60.00,Monday
58,619002458.503926
88,13651413.9213531
443,55180531.8783121
701,180852058.868407
1745,619002458.503926
2,2, 1, 2, 0, 8, 0.00,60.00,Monday
58,693094281.565741
88,40420543.001099
443,95796493.4167736
701,162352750.700408
1745,693094281.565741
2,2, 1, 2, 0, 9, 0.00,60.00,Monday
58,652954263.766984
88,103745561.154458
443,204227663.759169
701,153767805.104421
1745,652954263.766984
2,2, 1, 2, 0,10, 0.00,60.00,Monday
58,544446437.812215
88,97524469.6881813
443,174055806.616312
701,141394669.97104
1745,544446437.812215
2,2, 1, 2, 0,11, 0.00,60.00,Monday
58,494603440.02024
88,97017325.314109
443,167093070.352576
701,135578224.669578
1745,494603440.02024
2,2, 1, 2, 0,12, 0.00,60.00,Monday
58,461989235.115939
88,96660690.5880898
443,174055806.616312
701,137211518.784128
1745,461989235.115939
2,2, 1, 2, 0,13, 0.00,60.00,Monday
58,489292437.059909
88,96660690.5880898
443,177667514.306075
701,139142486.362267
1745,489292437.059909
2,2, 1, 2, 0,14, 0.00,60.00,Monday
58,424959458.292124
88,96660690.5880898
443,179858086.836092
701,151654453.381213
1745,424959458.292124
2,2, 1, 2, 0,15, 0.00,60.00,Monday
58,407901132.836194
88,97696808.3236214
443,167093070.352576
701,157211001.031774
1745,407901132.836194
2,2, 1, 2, 0,16, 0.00,60.00,Monday
58,414803126.690879
88,105128591.478424
443,167093070.352576
701,144577681.564364
1745,414803126.69088
2,2, 1, 2, 0,17, 0.00,60.00,Monday
58,463204837.908894
88,122062187.326333
443,177537174.74818
701,143585628.100584
1745,463204837.908894
2,2, 1, 2, 0,18, 0.00,60.00,Monday
58,470270750.494779
88,68257069.6067657
443,140923939.573165
701,145449938.071862
1745,470270750.494779
2,2, 1, 2, 0,19, 0.00,60.00,Monday
58,379167335.767044
88,40954241.7640594
443,69106004.4057846
701,131944017.059243
1745,379167335.767044
2,2, 1, 2, 0,20, 0.00,60.00,Monday
58,355885725.521067
88,40954241.7640594
443,59822356.0541363
701,126901940.731206
1745,355885725.521067
2,2, 1, 2, 0,21, 0.00,60.00,Monday
58,345129691.022914
88,27302827.8427063
443,59822356.0541363
701,115135192.414552
1745,345129691.022914
2,2, 1, 2, 0,22, 0.00,60.00,Monday
58,340544683.171667
88,27302827.8427063
443,55180531.8783121
701,103411663.707865
1745,340544683.171667
2,2, 1, 2, 0,23, 0.00,60.00,Monday
58,99285849.1003389
88,13651413.9213531
443,55180531.8783121
701,4597200.
1745,99285849.1003388
2,2, 1, 2, 0,24, 0.00,60.00,Monday
58,92454692.4766817
88,6825706.96067657
443,55180531.8783121
701,4597200.
1745,92454692.4766817
2,3, 1, 3, 0, 1, 0.00,60.00,Tuesday
58,72339865.2674801
88,7915463.67251137
443,44533202.0018108
701,4597200.
1745,72339865.26748
2,3, 1, 3, 0, 2, 0.00,60.00,Tuesday
58,72340000.9157607
88,7915463.67251137
443,44533202.0018108
701,4597200.
1745,72340000.9157607
2,3, 1, 3, 0, 3, 0.00,60.00,Tuesday
58,72340000.9157607
88,7915463.67251137
443,44533202.0018108
701,4597200.
1745,72340000.9157607
2,3, 1, 3, 0, 4, 0.00,60.00,Tuesday
58,72340000.9157607
88,7915463.67251137
443,44533202.0018108
701,4597200.
1745,72340000.9157607
2,3, 1, 3, 0, 5, 0.00,60.00,Tuesday
58,72340000.9157607
88,7915463.67251137
443,44533202.0018108
701,4597200.
1745,72340000.9157607
2,3, 1, 3, 0, 6, 0.00,60.00,Tuesday
58,148771736.953891
88,15830927.3450227
443,44533202.0018108
701,102163932.263525
1745,148771736.953891
2,3, 1, 3, 0, 7, 0.00,60.00,Tuesday
58,370701436.736444
88,13651413.9213531
443,55180531.8783121
701,188968016.731216
1745,370701436.736444
2,3, 1, 3, 0, 8, 0.00,60.00,Tuesday
58,486586919.695067
88,38564886.6580316
443,95796493.4167736
701,181527943.107796
1745,486586919.695067
2,3, 1, 3, 0, 9, 0.00,60.00,Tuesday
58,487760878.253538
88,98699095.1864634
443,204227663.759169
701,190164558.23695
1745,487760878.253538
2,3, 1, 3, 0,10, 0.00,60.00,Tuesday
58,407399899.06961
88,96660690.5880898
443,174055806.616312
701,210144247.399052
1745,407399899.069609
2,3, 1, 3, 0,11, 0.00,60.00,Tuesday
58,373879664.310904
88,96660690.5880898
443,167093070.352576
701,201198403.640768
1745,373879664.310904
2,3, 1, 3, 0,12, 0.00,60.00,Tuesday
58,365441647.727575
88,96660690.5880898
443,174055806.616312
701,198068905.732135
1745,365441647.727575
2,3, 1, 3, 0,13, 0.00,60.00,Tuesday
58,404383792.052604
88,96660690.5880898
443,177667514.306075
701,191507289.505228
1745,404383792.052604
2,3, 1, 3, 0,14, 0.00,60.00,Tuesday
58,362460824.802772
88,96660690.5880898
443,179858086.836092
701,187331855.454964
1745,362460824.802772
2,3, 1, 3, 0,15, 0.00,60.00,Tuesday
58,346049501.476206
88,97130214.9551761
443,167093070.352576
701,179705346.315682
1745,346049501.476206
2,3, 1, 3, 0,16, 0.00,60.00,Tuesday
58,353885253.893354
88,101211484.940202
443,167093070.352576
701,174401229.33974
1745,353885253.893354
2,3, 1, 3, 0,17, 0.00,60.00,Tuesday
58,416101775.308013
88,121496719.536613
443,177537174.74818
701,176735361.487099
1745,416101775.308013
2,3, 1, 3, 0,18, 0.00,60.00,Tuesday
58,401369835.263865
88,68257069.6067657
443,140923939.573165
701,168215424.508281
1745,401369835.263865
2,3, 1, 3, 0,19, 0.00,60.00,Tuesday
58,321633767.200449
88,40954241.7640594
443,69106004.4057846
701,169870172.067777
1745,321633767.200449
2,3, 1, 3, 0,20, 0.00,60.00,Tuesday
58,303304143.510136
88,40954241.7640594
443,59822356.0541363
701,167344188.273914
1745,303304143.510136
2,3, 1, 3, 0,21, 0.00,60.00,Tuesday
58,295468801.466079
88,27302827.8427063
443,59822356.0541363
701,172179391.861161
1745,295468801.466079
2,3, 1, 3, 0,22, 0.00,60.00,Tuesday
58,296348770.64398
88,27302827.8427063
443,55180531.8783121
701,164290688.215614
1745,296348770.64398
2,3, 1, 3, 0,23, 0.00,60.00,Tuesday
58,99285849.1003389
88,13651413.9213531
443,55180531.8783121
701,4597200.
1745,99285849.1003388
2,3, 1, 3, 0,24, 0.00,60.00,Tuesday
58,92454692.4766817
88,6825706.96067657
443,55180531.8783121
701,4597200.
1745,92454692.4766817
2,4, 1, 4, 0, 1, 0.00,60.00,Wednesday
58,72339865.2674801
88,7915463.67251137
443,44533202.0018108
701,4597200.
1745,72339865.26748
2,4, 1, 4, 0, 2, 0.00,60.00,Wednesday
58,72340000.9157607
88,7915463.67251137
443,44533202.0018108
701,4597200.
1745,72340000.9157607
2,4, 1, 4, 0, 3, 0.00,60.00,Wednesday
58,72340000.9157607
88,7915463.67251137
443,44533202.0018108
701,4597200.
1745,72340000.9157607
2,4, 1, 4, 0, 4, 0.00,60.00,Wednesday
58,72340000.9157607
88,7915463.67251137
443,44533202.0018108
701,4597200.
1745,72340000.9157607
2,4, 1, 4, 0, 5, 0.00,60.00,Wednesday
58,72340000.9157607
88,7915463.67251137
443,44533202.0018108
701,4597200.
1745,72340000.9157607
2,4, 1, 4, 0, 6, 0.00,60.00,Wednesday
58,128949190.207832
88,15830927.3450227
443,44533202.0018108
701,93876547.0170893
1745,128949190.207832
2,4, 1, 4, 0, 7, 0.00,60.00,Wednesday
58,329378439.362907
88,13651413.9213531
443,55180531.8783121
701,185599036.448732
1745,329378439.362907
2,4, 1, 4, 0, 8, 0.00,60.00,Wednesday
58,447562729.188597
88,38751078.8336545
443,95796493.4167736
701,171564414.44188
1745,447562729.188597
2,4, 1, 4, 0, 9, 0.00,60.00,Wednesday
58,462824347.316426
88,99068859.3076192
443,204227663.759169
701,164505985.36126
1745,462824347.316426
2,4, 1, 4, 0,10, 0.00,60.00,Wednesday
58,389573165.65667
88,97130207.5501488
443,174055806.616312
701,170766716.870648
1745,389573165.65667
2,4, 1, 4, 0,11, 0.00,60.00,Wednesday
58,358946308.075766
88,96660690.5880898
443,167093070.352576
701,161109595.244415
1745,358946308.075766
2,4, 1, 4, 0,12, 0.00,60.00,Wednesday
58,352930784.61687
88,96660690.5880898
443,174055806.616312
701,163688576.791302
1745,352930784.61687
2,4, 1, 4, 0,13, 0.00,60.00,Wednesday
58,389294149.37706
88,96660690.5880898
443,177667514.306075
701,152583982.68601
1745,389294149.37706
2,4, 1, 4, 0,14, 0.00,60.00,Wednesday
58,351800194.652994
88,96720129.709093
443,179858086.836092
701,147803085.013987
1745,351800194.652994
2,4, 1, 4, 0,15, 0.00,60.00,Wednesday
58,338131095.840193
88,97480861.0802561
443,167093070.352576
701,141586167.45259
1745,338131095.840193
2,4, 1, 4, 0,16, 0.00,60.00,Wednesday
58,353225014.87719
88,104206630.900785
443,167093070.352576
701,145680463.857207
1745,353225014.87719
2,4, 1, 4, 0,17, 0.00,60.00,Wednesday
58,416049884.589781
88,122062187.326333
443,177537174.74818
701,159965897.394589
1745,416049884.589781
2,4, 1, 4, 0,18, 0.00,60.00,Wednesday
58,400606468.230739
88,68257069.6067657
443,140923939.573165
701,172274786.244327
1745,400606468.230739
2,4, 1, 4, 0,19, 0.00,60.00,Wednesday
58,319985415.848808
88,40954241.7640594
443,69106004.4057846
701,189260434.967893
1745,319985415.848808
2,4, 1, 4, 0,20, 0.00,60.00,Wednesday
58,304042417.241187
88,40954241.7640594
443,59822356.0541363
701,192854259.136912
1745,304042417.241187
2,4, 1, 4, 0,21, 0.00,60.00,Wednesday
58,298540895.29428
88,27302827.8427063
443,59822356.0541363
701,190564083.665311
1745,298540895.29428
2,4, 1, 4, 0,22, 0.00,60.00,Wednesday
58,300892834.966024
88,27302827.8427063
443,55180531.8783121
701,191964111.991208
1745,300892834.966024
2,4, 1, 4, 0,23, 0.00,60.00,Wednesday
58,99285849.1003389
88,13651413.9213531
443,55180531.8783121
701,4597200.
1745,99285849.1003388
2,4, 1, 4, 0,24, 0.00,60.00,Wednesday
58,92454692.4766817
88,6825706.96067657
443,55180531.8783121
701,4597200.
1745,92454692.4766817
2,5, 1, 5, 0, 1, 0.00,60.00,Thursday
58,72339865.2674801
88,7915463.67251137
443,44533202.0018108
701,4597200.
1745,72339865.26748
2,5, 1, 5, 0, 2, 0.00,60.00,Thursday
58,72340000.9157607
88,7915463.67251137
443,44533202.0018108
701,4597200.
1745,72340000.9157607
2,5, 1, 5, 0, 3, 0.00,60.00,Thursday
58,72340000.9157607
88,7915463.67251137
443,44533202.0018108
701,4597200.
1745,72340000.9157607
2,5, 1, 5, 0, 4, 0.00,60.00,Thursday
58,72340000.9157607
88,7915463.67251137
443,44533202.0018108
701,4597200.
1745,72340000.9157607
2,5, 1, 5, 0, 5, 0.00,60.00,Thursday
58,81482985.7268997
88,7915463.67251137
443,44533202.0018108
701,64933535.1480543
1745,81482985.7268997
2,5, 1, 5, 0, 6, 0.00,60.00,Thursday
58,188700316.649306
88,15830927.3450227
443,44533202.0018108
701,227174823.290733
1745,188700316.649306
2,5, 1, 5, 0, 7, 0.00,60.00,Thursday
58,412808640.498781
88,13651413.9213531
443,55180531.8783121
701,347305295.028203
1745,412808640.498781
2,5, 1, 5, 0, 8, 0.00,60.00,Thursday
58,497080331.460166
88,37665692.9576309
443,95796493.4167736
701,328157561.570977
1745,497080331.460166
2,5, 1, 5, 0, 9, 0.00,60.00,Thursday
58,477703308.284791
88,98917226.5491829
443,204227663.759169
701,322777979.899487
1745,477703308.284791
2,5, 1, 5, 0,10, 0.00,60.00,Thursday
58,369898033.222531
88,96876635.3631127
443,174055806.616312
701,315379500.760957
1745,369898033.222531
2,5, 1, 5, 0,11, 0.00,60.00,Thursday
58,343218951.755988
88,96660690.5880898
443,167093070.352576
701,276366907.792644
1745,343218951.755988
2,5, 1, 5, 0,12, 0.00,60.00,Thursday
58,351890414.890943
88,96660690.5880898
443,174055806.616312
701,254662311.151228
1745,351890414.890943
2,5, 1, 5, 0,13, 0.00,60.00,Thursday
58,396960477.693097
88,96660690.5880898
443,177667514.306075
701,230320327.897105
1745,396960477.693097
2,5, 1, 5, 0,14, 0.00,60.00,Thursday
58,335823684.644431
88,96660690.5880898
443,179858086.836092
701,211602947.098868
1745,335823684.644431
2,5, 1, 5, 0,15, 0.00,60.00,Thursday
58,313491120.313044
88,97048966.5935255
443,167093070.352576
701,181195174.541042
1745,313491120.313044
2,5, 1, 5, 0,16, 0.00,60.00,Thursday
58,324039555.180115
88,101901372.908769
443,167093070.352576
701,168408177.762758
1745,324039555.180115
2,5, 1, 5, 0,17, 0.00,60.00,Thursday
58,395437720.797402
88,120970449.761437
443,177537174.74818
701,180041675.509742
1745,395437720.797402
2,5, 1, 5, 0,18, 0.00,60.00,Thursday
58,385871379.065901
88,68257069.6067657
443,140923939.573165
701,187891692.473288
1745,385871379.065901
2,5, 1, 5, 0,19, 0.00,60.00,Thursday
58,304478878.628868
88,40954241.7640594
443,69106004.4057846
701,197799203.508091
1745,304478878.628868
2,5, 1, 5, 0,20, 0.00,60.00,Thursday
58,291575473.038046
88,40954241.7640594
443,59822356.0541363
701,208251544.296415
1745,291575473.038046
2,5, 1, 5, 0,21, 0.00,60.00,Thursday
58,289962427.924317
88,27302827.8427063
443,59822356.0541363
701,224883405.121672
1745,289962427.924317
2,5, 1, 5, 0,22, 0.00,60.00,Thursday
58,293467424.634626
88,27302827.8427063
443,55180531.8783121
701,240673342.592368
1745,293467424.634626
2,5, 1, 5, 0,23, 0.00,60.00,Thursday
58,99285849.1003389
88,13651413.9213531
443,55180531.8783121
701,4597200.
1745,99285849.1003388
2,5, 1, 5, 0,24, 0.00,60.00,Thursday
58,92454692.4766817
88,6825706.96067657
443,55180531.8783121
701,4597200.
1745,92454692.4766817
2,6, 1, 6, 0, 1, 0.00,60.00,Friday
58,72339865.2674801
88,7915463.67251137
443,44533202.0018108
701,4597200.
1745,72339865.26748
2,6, 1, 6, 0, 2, 0.00,60.00,Friday
58,72340000.9157607
88,7915463.67251137
443,44533202.0018108
701,4597200.
1745,72340000.9157607
2,6, 1, 6, 0, 3, 0.00,60.00,Friday
58,72340000.9157607
88,7915463.67251137
443,44533202.0018108
701,4597200.
1745,72340000.9157607
2,6, 1, 6, 0, 4, 0.00,60.00,Friday
58,76103647.8919612
88,7915463.67251137
443,44533202.0018108
701,37748550.2909383
1745,76103647.8919612
2,6, 1, 6, 0, 5, 0.00,60.00,Friday
58,83419338.6392451
88,7915463.67251137
443,44533202.0018108
701,103007145.219937
1745,83419338.6392451
2,6, 1, 6, 0, 6, 0.00,60.00,Friday
58,176585856.856317
88,15830927.3450227
443,44533202.0018108
701,231950706.332098
1745,176585856.856317
2,6, 1, 6, 0, 7, 0.00,60.00,Friday
58,405399903.660241
88,13651413.9213531
443,55180531.8783121
701,341662937.40753
1745,405399903.660241
2,6, 1, 6, 0, 8, 0.00,60.00,Friday
58,487124010.372835
88,37829097.2795286
443,95796493.4167736
701,333849449.781043
1745,487124010.372835
2,6, 1, 6, 0, 9, 0.00,60.00,Friday
58,471304058.487146
88,98917226.5491829
443,204227663.759169
701,327525876.671073
1745,471304058.487146
2,6, 1, 6, 0,10, 0.00,60.00,Friday
58,372200114.822218
88,96757757.1211063
443,174055806.616312
701,327049527.796125
1745,372200114.822218
2,6, 1, 6, 0,11, 0.00,60.00,Friday
58,349908667.712649
88,96660690.5880898
443,167093070.352576
701,309946889.78926
1745,349908667.712649
2,6, 1, 6, 0,12, 0.00,60.00,Friday
58,368156629.011662
88,96660690.5880898
443,174055806.616312
701,300561875.748438
1745,368156629.011662
2,6, 1, 6, 0,13, 0.00,60.00,Friday
58,408530672.374317
88,96660690.5880898
443,177667514.306075
701,301718519.599259
1745,408530672.374317
2,6, 1, 6, 0,14, 0.00,60.00,Friday
58,392830923.056467
88,97195642.6771186
443,179858086.836092
701,298827969.662561
1745,392830923.056468
2,6, 1, 6, 0,15, 0.00,60.00,Friday
58,362990283.380874
88,97599739.3222625
443,167093070.352576
701,289539464.415176
1745,362990283.380874
2,6, 1, 6, 0,16, 0.00,60.00,Friday
58,367693994.446186
88,99409008.3893922
443,167093070.352576
701,296383676.230233
1745,367693994.446186
2,6, 1, 6, 0,17, 0.00,60.00,Friday
58,446227643.567434
88,120169891.438402
443,177537174.74818
701,322722102.342262
1745,446227643.567434
2,6, 1, 6, 0,18, 0.00,60.00,Friday
58,433700673.057421
88,68257069.6067657
443,140923939.573165
701,338630367.026391
1745,433700673.057421
2,6, 1, 6, 0,19, 0.00,60.00,Friday
58,370947888.517509
88,40954241.7640594
443,69106004.4057846
701,355907105.006671
1745,370947888.517509
2,6, 1, 6, 0,20, 0.00,60.00,Friday
58,353095886.56641
88,40954241.7640594
443,59822356.0541363
701,361846523.985389
1745,353095886.56641
2,6, 1, 6, 0,21, 0.00,60.00,Friday
58,347800943.184263
88,27302827.8427063
443,59822356.0541363
701,377435964.056403
1745,347800943.184263
2,6, 1, 6, 0,22, 0.00,60.00,Friday
58,352917918.848805
88,27302827.8427063
443,55180531.8783121
701,381757483.218404
1745,352917918.848805
2,6, 1, 6, 0,23, 0.00,60.00,Friday
58,99285849.1003389
88,13651413.9213531
443,55180531.8783121
701,4597200.
1745,99285849.1003389
2,6, 1, 6, 0,24, 0.00,60.00,Friday
58,92454692.4766817
88,6825706.96067657
443,55180531.8783121
701,4597200.
1745,92454692.4766817
2,7, 1, 7, 0, 1, 0.00,60.00,Saturday
58,70994028.5145131
88,7915463.67251137
443,33399901.5013581
701,82075690.4395359
1745,70994028.5145131
2,7, 1, 7, 0, 2, 0.00,60.00,Saturday
58,79247752.160336
88,7915463.67251137
443,33399901.5013581
701,122802962.490997
1745,79247752.1603359
2,7, 1, 7, 0, 3, 0.00,60.00,Saturday
58,80819624.7239186
88,7915463.67251137
443,33399901.5013581
701,125688439.025283
1745,80819624.7239186
2,7, 1, 7, 0, 4, 0.00,60.00,Saturday
58,78072457.3684175
88,7915463.67251137
443,33399901.5013581
701,87219818.273075
1745,78072457.3684175
2,7, 1, 7, 0, 5, 0.00,60.00,Saturday
58,92453474.4717692
88,7915463.67251137
443,33399901.5013581
701,131201988.723209
1745,92453474.4717692
2,7, 1, 7, 0, 6, 0.00,60.00,Saturday
58,238087621.412273
88,7915463.67251137
443,33399901.5013581
701,350074081.317612
1745,238087621.412273
2,7, 1, 7, 0, 7, 0.00,60.00,Saturday
58,463341542.096679
88,13651413.9213531
443,55180531.8783121
701,458485548.41556
1745,463341542.096679
2,7, 1, 7, 0, 8, 0.00,60.00,Saturday
58,499581664.088226
88,12552524.2063812
443,73747828.5816088
701,435956199.992105
1745,499581664.088226
2,7, 1, 7, 0, 9, 0.00,60.00,Saturday
58,360747424.735519
88,33242275.3188721
443,85222049.4632748
701,402793052.596191
1745,360747424.735519
2,7, 1, 7, 0,10, 0.00,60.00,Saturday
58,309060409.845122
88,32409091.3610551
443,93345241.7709671
701,364567914.143779
1745,309060409.845122
2,7, 1, 7, 0,11, 0.00,60.00,Saturday
58,291914161.65661
88,32220230.1960299
443,89863873.6390989
701,334504538.230032
1745,291914161.65661
2,7, 1, 7, 0,12, 0.00,60.00,Saturday
58,295220447.773973
88,32220230.1960299
443,97987065.9467912
701,332006169.736101
1745,295220447.773973
2,7, 1, 7, 0,13, 0.00,60.00,Saturday
58,260829356.251213
88,16110115.098015
443,72652542.3166
701,317968628.814176
1745,260829356.251213
2,7, 1, 7, 0,14, 0.00,60.00,Saturday
58,232803523.995056
88,16110115.098015
443,63368893.9649517
701,306262787.08825
1745,232803523.995056
2,7, 1, 7, 0,15, 0.00,60.00,Saturday
58,212477083.660215
88,16271896.7669465
443,57566613.7451715
701,302579359.153283
1745,212477083.660215
2,7, 1, 7, 0,16, 0.00,60.00,Saturday
58,211556363.021968
88,16983562.1514615
443,52924789.5693473
701,311404579.06545
1745,211556363.021968
2,7, 1, 7, 0,17, 0.00,60.00,Saturday
58,277409814.805929
88,19926491.1045112
443,54085245.6133033
701,335896657.412362
1745,277409814.805929
2,7, 1, 7, 0,18, 0.00,60.00,Saturday
58,98475664.32145
88,6825706.96067657
443,48348135.1724704
701,367122930.712794
1745,98475664.32145
2,7, 1, 7, 0,19, 0.00,60.00,Saturday
58,78390468.9441826
88,6825706.96067657
443,41385398.9087341
701,4597200.
1745,78390468.9441826
2,7, 1, 7, 0,20, 0.00,60.00,Saturday
58,74496766.5467935